Program Version,EnergyPlus, Version 23.1.0-87ed9199d4, YMD=2024.12.05 11:28
1,5,Environment Title[],Latitude[deg],Longitude[deg],Time Zone[],Elevation[m]
2,8,Day of Simulation[],Month[],Day of Month[],DST Indicator[1=yes 0=no],Hour[],StartMinute[],EndMinute[],DayType
3,5,Cumulative Day of Simulation[],Month[],Day of Month[],DST Indicator[1=yes 0=no],DayType  ! When Daily Report Variables Requested
4,2,Cumulative Days of Simulation[],Month[]  ! When Monthly Report Variables Requested
5,1,Cumulative Days of Simulation[] ! When Run Period Report Variables Requested
6,1,Calendar Year of Simulation[] ! When Annual Report Variables Requested
93,1,Whole Building,Facility Total Purchased Electricity Energy [J] !Hourly
142,1,Whole Building,Facility Total Surplus Electricity Energy [J] !Hourly
240,1,Whole Building,Facility Total Produced Electricity Energy [J] !Hourly
241,1,PANEL0,Generator Produced DC Electricity Energy [J] !Hourly
254,1,PANEL1,Generator Produced DC Electricity Energy [J] !Hourly
End of Data Dictionary
1,CLIMATE STUDIO,  40.70, -74.01,  -5.00,   2.10
2,1, 1, 1, 0, 1, 0.00,60.00,Sunday
93,0.0
142,0.0
240,0.0
241,0.0
254,0.0
2,1, 1, 1, 0, 2, 0.00,60.00,Sunday
93,0.0
142,0.0
240,0.0
241,0.0
254,0.0
2,1, 1, 1, 0, 3, 0.00,60.00,Sunday
93,0.0
142,0.0
240,0.0
241,0.0
254,0.0
2,1, 1, 1, 0, 4, 0.00,60.00,Sunday
93,0.0
142,0.0
240,0.0
241,0.0
254,0.0
2,1, 1, 1, 0, 5, 0.00,60.00,Sunday
93,0.0
142,0.0
240,0.0
241,0.0
254,0.0
2,1, 1, 1, 0, 6, 0.00,60.00,Sunday
93,0.0
142,0.0
240,0.0
241,0.0
254,0.0
2,1, 1, 1, 0, 7, 0.00,60.00,Sunday
93,0.0
142,0.0
240,0.0
241,0.0
254,0.0
2,1, 1, 1, 0, 8, 0.00,60.00,Sunday
93,0.0
142,11046935.871606953
240,11046935.871606953
241,978925.3885467724
254,10068010.483060181
2,1, 1, 1, 0, 9, 0.00,60.00,Sunday
93,0.0
142,75964364.71280202
240,75964364.71280202
241,8532958.589769058
254,67431406.12303297
2,1, 1, 1, 0,10, 0.00,60.00,Sunday
93,0.0
142,150440710.41372573
240,150440710.41372573
241,19112511.380840674
254,131328199.03288504
2,1, 1, 1, 0,11, 0.00,60.00,Sunday
93,0.0
142,188317351.53990424
240,188317351.53990424
241,25640164.790979877
254,162677186.74892431
2,1, 1, 1, 0,12, 0.00,60.00,Sunday
93,0.0
142,211335867.79801458
240,211335867.79801458
241,29644735.46658317
254,181691132.33143142
2,1, 1, 1, 0,13, 0.00,60.00,Sunday
93,0.0
142,160503034.4376812
240,160503034.4376812
241,24251067.564777814
254,136251966.87290338
2,1, 1, 1, 0,14, 0.00,60.00,Sunday
93,0.0
142,111752688.68484792
240,111752688.68484792
241,17852612.40396378
254,93900076.28088415
2,1, 1, 1, 0,15, 0.00,60.00,Sunday
93,0.0
142,66579391.34843286
240,66579391.34843286
241,11614460.48599969
254,54964930.86243317
2,1, 1, 1, 0,16, 0.00,60.00,Sunday
93,0.0
142,37712861.82189707
240,37712861.82189707
241,6439691.7849281095
254,31273170.03696896
2,1, 1, 1, 0,17, 0.00,60.00,Sunday
93,0.0
142,10213490.899154559
240,10213490.899154559
241,1488661.408012221
254,8724829.491142336
2,1, 1, 1, 0,18, 0.00,60.00,Sunday
93,0.0
142,0.0
240,0.0
241,0.0
254,0.0
2,1, 1, 1, 0,19, 0.00,60.00,Sunday
93,0.0
142,0.0
240,0.0
241,0.0
254,0.0
2,1, 1, 1, 0,20, 0.00,60.00,Sunday
93,0.0
142,0.0
240,0.0
241,0.0
254,0.0
2,1, 1, 1, 0,21, 0.00,60.00,Sunday
93,0.0
142,0.0
240,0.0
241,0.0
254,0.0
2,1, 1, 1, 0,22, 0.00,60.00,Sunday
93,0.0
142,0.0
240,0.0
241,0.0
254,0.0
2,1, 1, 1, 0,23, 0.00,60.00,Sunday
93,0.0
142,0.0
240,0.0
241,0.0
254,0.0
2,1, 1, 1, 0,24, 0.00,60.00,Sunday
93,0.0
142,0.0
240,0.0
241,0.0
254,0.0
2,2, 1, 2, 0, 1, 0.00,60.00,Monday
93,0.0
142,0.0
240,0.0
241,0.0
254,0.0
2,2, 1, 2, 0, 2, 0.00,60.00,Monday
93,0.0
142,0.0
240,0.0
241,0.0
254,0.0
2,2, 1, 2, 0, 3, 0.00,60.00,Monday
93,0.0
142,0.0
240,0.0
241,0.0
254,0.0
2,2, 1, 2, 0, 4, 0.00,60.00,Monday
93,0.0
142,0.0
240,0.0
241,0.0
254,0.0
2,2, 1, 2, 0, 5, 0.00,60.00,Monday
93,0.0
142,0.0
240,0.0
241,0.0
254,0.0
2,2, 1, 2, 0, 6, 0.00,60.00,Monday
93,0.0
142,0.0
240,0.0
241,0.0
254,0.0
2,2, 1, 2, 0, 7, 0.00,60.00,Monday
93,0.0
142,0.0
240,0.0
241,0.0
254,0.0
2,2, 1, 2, 0, 8, 0.00,60.00,Monday
93,0.0
142,3939511.89118681
240,3939511.89118681
241,690321.5021642421
254,3249190.3890225682
2,2, 1, 2, 0, 9, 0.00,60.00,Monday
93,0.0
142,28169543.328375436
240,28169543.328375436
241,4766126.154916616
254,23403417.173458822
2,2, 1, 2, 0,10, 0.00,60.00,Monday
93,0.0
142,62803316.109159775
240,62803316.109159775
241,10549326.892127052
254,52253989.21703273
2,2, 1, 2, 0,11, 0.00,60.00,Monday
93,0.0
142,105086812.5677307
240,105086812.5677307
241,16760551.145213151
254,88326261.42251755
2,2, 1, 2, 0,12, 0.00,60.00,Monday
93,0.0
142,172353971.24152443
240,172353971.24152443
241,25394944.446384158
254,146959026.79514027
2,2, 1, 2, 0,13, 0.00,60.00,Monday
93,0.0
142,264316036.1514235
240,264316036.1514235
241,35518248.54743392
254,228797787.60398963
2,2, 1, 2, 0,14, 0.00,60.00,Monday
93,0.0
142,231477899.1843532
240,231477899.1843532
241,30752733.64711849
254,200725165.53723475
2,2, 1, 2, 0,15, 0.00,60.00,Monday
93,0.0
142,204239347.7341689
240,204239347.7341689
241,25068741.38716595
254,179170606.34700292
2,2, 1, 2, 0,16, 0.00,60.00,Monday
93,0.0
142,125595496.5254061
240,125595496.5254061
241,13588064.866855873
254,112007431.65855023
2,2, 1, 2, 0,17, 0.00,60.00,Monday
93,0.0
142,23404986.588451713
240,23404986.588451713
241,1979758.7016362133
254,21425227.886815503
2,2, 1, 2, 0,18, 0.00,60.00,Monday
93,0.0
142,0.0
240,0.0
241,0.0
254,0.0
2,2, 1, 2, 0,19, 0.00,60.00,Monday
93,0.0
142,0.0
240,0.0
241,0.0
254,0.0
2,2, 1, 2, 0,20, 0.00,60.00,Monday
93,0.0
142,0.0
240,0.0
241,0.0
254,0.0
2,2, 1, 2, 0,21, 0.00,60.00,Monday
93,0.0
142,0.0
240,0.0
241,0.0
254,0.0
2,2, 1, 2, 0,22, 0.00,60.00,Monday
93,0.0
142,0.0
240,0.0
241,0.0
254,0.0
2,2, 1, 2, 0,23, 0.00,60.00,Monday
93,0.0
142,0.0
240,0.0
241,0.0
254,0.0
2,2, 1, 2, 0,24, 0.00,60.00,Monday
93,0.0
142,0.0
240,0.0
241,0.0
254,0.0
2,3, 1, 3, 0, 1, 0.00,60.00,Tuesday
93,0.0
142,0.0
240,0.0
241,0.0
254,0.0
2,3, 1, 3, 0, 2, 0.00,60.00,Tuesday
93,0.0
142,0.0
240,0.0
241,0.0
254,0.0
2,3, 1, 3, 0, 3, 0.00,60.00,Tuesday
93,0.0
142,0.0
240,0.0
241,0.0
254,0.0
2,3, 1, 3, 0, 4, 0.00,60.00,Tuesday
93,0.0
142,0.0
240,0.0
241,0.0
254,0.0
2,3, 1, 3, 0, 5, 0.00,60.00,Tuesday
93,0.0
142,0.0
240,0.0
241,0.0
254,0.0
2,3, 1, 3, 0, 6, 0.00,60.00,Tuesday
93,0.0
142,0.0
240,0.0
241,0.0
254,0.0
2,3, 1, 3, 0, 7, 0.00,60.00,Tuesday
93,0.0
142,0.0
240,0.0
241,0.0
254,0.0
2,3, 1, 3, 0, 8, 0.00,60.00,Tuesday
93,0.0
142,14880015.102394734
240,14880015.102394734
241,1090037.9761698036
254,13789977.12622493
2,3, 1, 3, 0, 9, 0.00,60.00,Tuesday
93,0.0
142,106297186.88289164
240,106297186.88289164
241,10939825.235635394
254,95357361.64725626
2,3, 1, 3, 0,10, 0.00,60.00,Tuesday
93,0.0
142,210296689.47654653
240,210296689.47654653
241,25121724.439055063
254,185174965.03749147
2,3, 1, 3, 0,11, 0.00,60.00,Tuesday
93,0.0
142,288157801.3181896
240,288157801.3181896
241,36627792.79534817
254,251530008.52284148
2,3, 1, 3, 0,12, 0.00,60.00,Tuesday
93,0.0
142,325001171.59600544
240,325001171.59600544
241,42579250.64238301
254,282421920.95362246
2,3, 1, 3, 0,13, 0.00,60.00,Tuesday
93,0.0
142,330148394.1171919
240,330148394.1171919
241,42955128.34822023
254,287193265.7689717
2,3, 1, 3, 0,14, 0.00,60.00,Tuesday
93,0.0
142,297691612.8760044
240,297691612.8760044
241,37752665.8751673
254,259938947.0008371
2,3, 1, 3, 0,15, 0.00,60.00,Tuesday
93,0.0
142,231794936.3655905
240,231794936.3655905
241,27640399.580771815
254,204154536.7848187
2,3, 1, 3, 0,16, 0.00,60.00,Tuesday
93,0.0
142,138244428.21047676
240,138244428.21047676
241,14153336.996744761
254,124091091.21373197
2,3, 1, 3, 0,17, 0.00,60.00,Tuesday
93,0.0
142,24647373.522657454
240,24647373.522657454
241,1972111.095097776
254,22675262.427559674
2,3, 1, 3, 0,18, 0.00,60.00,Tuesday
93,0.0
142,0.0
240,0.0
241,0.0
254,0.0
2,3, 1, 3, 0,19, 0.00,60.00,Tuesday
93,0.0
142,0.0
240,0.0
241,0.0
254,0.0
2,3, 1, 3, 0,20, 0.00,60.00,Tuesday
93,0.0
142,0.0
240,0.0
241,0.0
254,0.0
2,3, 1, 3, 0,21, 0.00,60.00,Tuesday
93,0.0
142,0.0
240,0.0
241,0.0
254,0.0
2,3, 1, 3, 0,22, 0.00,60.00,Tuesday
93,0.0
142,0.0
240,0.0
241,0.0
254,0.0
2,3, 1, 3, 0,23, 0.00,60.00,Tuesday
93,0.0
142,0.0
240,0.0
241,0.0
254,0.0
2,3, 1, 3, 0,24, 0.00,60.00,Tuesday
93,0.0
142,0.0
240,0.0
241,0.0
254,0.0
2,4, 1, 4, 0, 1, 0.00,60.00,Wednesday
93,0.0
142,0.0
240,0.0
241,0.0
254,0.0
2,4, 1, 4, 0, 2, 0.00,60.00,Wednesday
93,0.0
142,0.0
240,0.0
241,0.0
254,0.0
2,4, 1, 4, 0, 3, 0.00,60.00,Wednesday
93,0.0
142,0.0
240,0.0
241,0.0
254,0.0
2,4, 1, 4, 0, 4, 0.00,60.00,Wednesday
93,0.0
142,0.0
240,0.0
241,0.0
254,0.0
2,4, 1, 4, 0, 5, 0.00,60.00,Wednesday
93,0.0
142,0.0
240,0.0
241,0.0
254,0.0
2,4, 1, 4, 0, 6, 0.00,60.00,Wednesday
93,0.0
142,0.0
240,0.0
241,0.0
254,0.0
2,4, 1, 4, 0, 7, 0.00,60.00,Wednesday
93,0.0
142,0.0
240,0.0
241,0.0
254,0.0
2,4, 1, 4, 0, 8, 0.00,60.00,Wednesday
93,0.0
142,15025465.44875903
240,15025465.44875903
241,1114828.7251923145
254,13910636.723566717
2,4, 1, 4, 0, 9, 0.00,60.00,Wednesday
93,0.0
142,107007027.36623639
240,107007027.36623639
241,11068508.70095742
254,95938518.66527899
2,4, 1, 4, 0,10, 0.00,60.00,Wednesday
93,0.0
142,213449818.4754927
240,213449818.4754927
241,25550215.470942136
254,187899603.00455058
2,4, 1, 4, 0,11, 0.00,60.00,Wednesday
93,0.0
142,293485689.7392714
240,293485689.7392714
241,37465665.16313362
254,256020024.57613778
2,4, 1, 4, 0,12, 0.00,60.00,Wednesday
93,0.0
142,334953744.0376285
240,334953744.0376285
241,43809140.36299914
254,291144603.67462933
2,4, 1, 4, 0,13, 0.00,60.00,Wednesday
93,0.0
142,339230821.13902736
240,339230821.13902736
241,44307414.96019182
254,294923406.1788355
2,4, 1, 4, 0,14, 0.00,60.00,Wednesday
93,0.0
142,308235589.086845
240,308235589.086845
241,39081563.994754046
254,269154025.09209096
2,4, 1, 4, 0,15, 0.00,60.00,Wednesday
93,0.0
142,243916171.03891218
240,243916171.03891218
241,28842903.6882054
254,215073267.3507068
2,4, 1, 4, 0,16, 0.00,60.00,Wednesday
93,0.0
142,149076481.0311056
240,149076481.0311056
241,15092404.826414505
254,133984076.2046911
2,4, 1, 4, 0,17, 0.00,60.00,Wednesday
93,0.0
142,32420369.05052148
240,32420369.05052148
241,2384427.2483110493
254,30035941.80221043
2,4, 1, 4, 0,18, 0.00,60.00,Wednesday
93,0.0
142,0.0
240,0.0
241,0.0
254,0.0
2,4, 1, 4, 0,19, 0.00,60.00,Wednesday
93,0.0
142,0.0
240,0.0
241,0.0
254,0.0
2,4, 1, 4, 0,20, 0.00,60.00,Wednesday
93,0.0
142,0.0
240,0.0
241,0.0
254,0.0
2,4, 1, 4, 0,21, 0.00,60.00,Wednesday
93,0.0
142,0.0
240,0.0
241,0.0
254,0.0
2,4, 1, 4, 0,22, 0.00,60.00,Wednesday
93,0.0
142,0.0
240,0.0
241,0.0
254,0.0
2,4, 1, 4, 0,23, 0.00,60.00,Wednesday
93,0.0
142,0.0
240,0.0
241,0.0
254,0.0
2,4, 1, 4, 0,24, 0.00,60.00,Wednesday
93,0.0
142,0.0
240,0.0
241,0.0
254,0.0
2,5, 1, 5, 0, 1, 0.00,60.00,Thursday
93,0.0
142,0.0
240,0.0
241,0.0
254,0.0
2,5, 1, 5, 0, 2, 0.00,60.00,Thursday
93,0.0
142,0.0
240,0.0
241,0.0
254,0.0
2,5, 1, 5, 0, 3, 0.00,60.00,Thursday
93,0.0
142,0.0
240,0.0
241,0.0
254,0.0
2,5, 1, 5, 0, 4, 0.00,60.00,Thursday
93,0.0
142,0.0
240,0.0
241,0.0
254,0.0
2,5, 1, 5, 0, 5, 0.00,60.00,Thursday
93,0.0
142,0.0
240,0.0
241,0.0
254,0.0
2,5, 1, 5, 0, 6, 0.00,60.00,Thursday
93,0.0
142,0.0
240,0.0
241,0.0
254,0.0
2,5, 1, 5, 0, 7, 0.00,60.00,Thursday
93,0.0
142,0.0
240,0.0
241,0.0
254,0.0
2,5, 1, 5, 0, 8, 0.00,60.00,Thursday
93,0.0
142,16404939.491933435
240,16404939.491933435
241,1173147.7384218082
254,15231791.753511626
2,5, 1, 5, 0, 9, 0.00,60.00,Thursday
93,0.0
142,119202556.96239023
240,119202556.96239023
241,12163405.403555226
254,107039151.558835
2,5, 1, 5, 0,10, 0.00,60.00,Thursday
93,0.0
142,229911250.15019903
240,229911250.15019903
241,27502210.06201501
254,202409040.088184
2,5, 1, 5, 0,11, 0.00,60.00,Thursday
93,0.0
142,308458132.9637468
240,308458132.9637468
241,39283851.54374865
254,269174281.41999817
2,5, 1, 5, 0,12, 0.00,60.00,Thursday
93,0.0
142,347682985.5972292
240,347682985.5972292
241,45344443.24500732
254,302338542.3522219
2,5, 1, 5, 0,13, 0.00,60.00,Thursday
93,0.0
142,349454863.0447217
240,349454863.0447217
241,45507990.64046709
254,303946872.4042546
2,5, 1, 5, 0,14, 0.00,60.00,Thursday
93,0.0
142,316230061.0290941
240,316230061.0290941
241,40070681.883573696
254,276159379.1455203
2,5, 1, 5, 0,15, 0.00,60.00,Thursday
93,0.0
142,251418101.05557123
240,251418101.05557123
241,29669901.378210053
254,221748199.67736116
2,5, 1, 5, 0,16, 0.00,60.00,Thursday
93,0.0
142,157123777.56221545
240,157123777.56221545
241,15673530.4480447
254,141450247.11417076
2,5, 1, 5, 0,17, 0.00,60.00,Thursday
93,0.0
142,35200750.366718225
240,35200750.366718225
241,2489108.4583048113
254,32711641.90841341
2,5, 1, 5, 0,18, 0.00,60.00,Thursday
93,0.0
142,0.0
240,0.0
241,0.0
254,0.0
2,5, 1, 5, 0,19, 0.00,60.00,Thursday
93,0.0
142,0.0
240,0.0
241,0.0
254,0.0
2,5, 1, 5, 0,20, 0.00,60.00,Thursday
93,0.0
142,0.0
240,0.0
241,0.0
254,0.0
2,5, 1, 5, 0,21, 0.00,60.00,Thursday
93,0.0
142,0.0
240,0.0
241,0.0
254,0.0
2,5, 1, 5, 0,22, 0.00,60.00,Thursday
93,0.0
142,0.0
240,0.0
241,0.0
254,0.0
2,5, 1, 5, 0,23, 0.00,60.00,Thursday
93,0.0
142,0.0
240,0.0
241,0.0
254,0.0
2,5, 1, 5, 0,24, 0.00,60.00,Thursday
93,0.0
142,0.0
240,0.0
241,0.0
254,0.0
2,6, 1, 6, 0, 1, 0.00,60.00,Friday
93,0.0
142,0.0
240,0.0
241,0.0
254,0.0
2,6, 1, 6, 0, 2, 0.00,60.00,Friday
93,0.0
142,0.0
240,0.0
241,0.0
254,0.0
2,6, 1, 6, 0, 3, 0.00,60.00,Friday
93,0.0
142,0.0
240,0.0
241,0.0
254,0.0
2,6, 1, 6, 0, 4, 0.00,60.00,Friday
93,0.0
142,0.0
240,0.0
241,0.0
254,0.0
2,6, 1, 6, 0, 5, 0.00,60.00,Friday
93,0.0
142,0.0
240,0.0
241,0.0
254,0.0
2,6, 1, 6, 0, 6, 0.00,60.00,Friday
93,0.0
142,0.0
240,0.0
241,0.0
254,0.0
2,6, 1, 6, 0, 7, 0.00,60.00,Friday
93,0.0
142,0.0
240,0.0
241,0.0
254,0.0
2,6, 1, 6, 0, 8, 0.00,60.00,Friday
93,0.0
142,15813585.076335898
240,15813585.076335898
241,1145278.5028932218
254,14668306.573442675
2,6, 1, 6, 0, 9, 0.00,60.00,Friday
93,0.0
142,114909361.6053251
240,114909361.6053251
241,11759276.15629576
254,103150085.44902933
2,6, 1, 6, 0,10, 0.00,60.00,Friday
93,0.0
142,224146555.3214269
240,224146555.3214269
241,26817063.43437103
254,197329491.88705587
2,6, 1, 6, 0,11, 0.00,60.00,Friday
93,0.0
142,303025017.7877491
240,303025017.7877491
241,38664823.387504645
254,264360194.40024447
2,6, 1, 6, 0,12, 0.00,60.00,Friday
93,0.0
142,344341574.6118415
240,344341574.6118415
241,44982282.79023336
254,299359291.8216082
2,6, 1, 6, 0,13, 0.00,60.00,Friday
93,0.0
142,347512082.80324435
240,347512082.80324435
241,45324484.201742806
254,302187598.6015016
2,6, 1, 6, 0,14, 0.00,60.00,Friday
93,0.0
142,314427659.6062739
240,314427659.6062739
241,39903214.79431037
254,274524444.8119635
2,6, 1, 6, 0,15, 0.00,60.00,Friday
93,0.0
142,250037944.61897945
240,250037944.61897945
241,29526272.488222912
254,220511672.13075656
2,6, 1, 6, 0,16, 0.00,60.00,Friday
93,0.0
142,155764177.64871848
240,155764177.64871848
241,15595267.51867044
254,140168910.13004804
2,6, 1, 6, 0,17, 0.00,60.00,Friday
93,0.0
142,35042404.08965468
240,35042404.08965468
241,2512595.707793246
254,32529808.381861426
2,6, 1, 6, 0,18, 0.00,60.00,Friday
93,0.0
142,0.0
240,0.0
241,0.0
254,0.0
2,6, 1, 6, 0,19, 0.00,60.00,Friday
93,0.0
142,0.0
240,0.0
241,0.0
254,0.0
2,6, 1, 6, 0,20, 0.00,60.00,Friday
93,0.0
142,0.0
240,0.0
241,0.0
254,0.0
2,6, 1, 6, 0,21, 0.00,60.00,Friday
93,0.0
142,0.0
240,0.0
241,0.0
254,0.0
2,6, 1, 6, 0,22, 0.00,60.00,Friday
93,0.0
142,0.0
240,0.0
241,0.0
254,0.0
2,6, 1, 6, 0,23, 0.00,60.00,Friday
93,0.0
142,0.0
240,0.0
241,0.0
254,0.0
2,6, 1, 6, 0,24, 0.00,60.00,Friday
93,0.0
142,0.0
240,0.0
241,0.0
254,0.0
2,7, 1, 7, 0, 1, 0.00,60.00,Saturday
93,0.0
142,0.0
240,0.0
241,0.0
254,0.0
2,7, 1, 7, 0, 2, 0.00,60.00,Saturday
93,0.0
142,0.0
240,0.0
241,0.0
254,0.0
2,7, 1, 7, 0, 3, 0.00,60.00,Saturday
93,0.0
142,0.0
240,0.0
241,0.0
254,0.0
2,7, 1, 7, 0, 4, 0.00,60.00,Saturday
93,0.0
142,0.0
240,0.0
241,0.0
254,0.0
2,7, 1, 7, 0, 5, 0.00,60.00,Saturday
93,0.0
142,0.0
240,0.0
241,0.0
254,0.0
2,7, 1, 7, 0, 6, 0.00,60.00,Saturday
93,0.0
142,0.0
240,0.0
241,0.0
254,0.0
2,7, 1, 7, 0, 7, 0.00,60.00,Saturday
93,0.0
142,0.0
240,0.0
241,0.0
254,0.0
2,7, 1, 7, 0, 8, 0.00,60.00,Saturday
93,0.0
142,13264754.933876809
240,13264754.933876809
241,1024306.0360565125
254,12240448.897820296
2,7, 1, 7, 0, 9, 0.00,60.00,Saturday
93,0.0
142,92473313.86991292
240,92473313.86991292
241,9700056.851816956
254,82773257.01809597
2,7, 1, 7, 0,10, 0.00,60.00,Saturday
93,0.0
142,184374070.20521018
240,184374070.20521018
241,22236348.04239922
254,162137722.16281095
2,7, 1, 7, 0,11, 0.00,60.00,Saturday
93,0.0
142,247643899.31221002
240,247643899.31221002
241,31891846.474010915
254,215752052.8381991
2,7, 1, 7, 0,12, 0.00,60.00,Saturday
93,0.0
142,250640462.4083524
240,250640462.4083524
241,34020653.37275719
254,216619809.0355952
2,7, 1, 7, 0,13, 0.00,60.00,Saturday
93,0.0
142,243564577.442176
240,243564577.442176
241,33450560.410654753
254,210114017.03152126
2,7, 1, 7, 0,14, 0.00,60.00,Saturday
93,0.0
142,205571905.38847756
240,205571905.38847756
241,28303947.747370675
254,177267957.6411069
2,7, 1, 7, 0,15, 0.00,60.00,Saturday
93,0.0
142,192412462.41771042
240,192412462.41771042
241,24242960.601581104
254,168169501.81612933
2,7, 1, 7, 0,16, 0.00,60.00,Saturday
93,0.0
142,125998422.32640314
240,125998422.32640314
241,13918322.300178945
254,112080100.02622418
2,7, 1, 7, 0,17, 0.00,60.00,Saturday
93,0.0
142,28215695.998592652
240,28215695.998592652
241,2422621.5045317914
254,25793074.494060863
2,7, 1, 7, 0,18, 0.00,60.00,Saturday
93,0.0
142,0.0
240,0.0
241,0.0
254,0.0
2,7, 1, 7, 0,19, 0.00,60.00,Saturday
93,0.0
142,0.0
240,0.0
241,0.0
254,0.0
2,7, 1, 7, 0,20, 0.00,60.00,Saturday
93,0.0
142,0.0
240,0.0
241,0.0
254,0.0
2,7, 1, 7, 0,21, 0.00,60.00,Saturday
93,0.0
142,0.0
240,0.0
241,0.0
254,0.0
2,7, 1, 7, 0,22, 0.00,60.00,Saturday
93,0.0
142,0.0
240,0.0
241,0.0
254,0.0
2,7, 1, 7, 0,23, 0.00,60.00,Saturday
93,0.0
142,0.0
240,0.0
241,0.0
254,0.0
2,7, 1, 7, 0,24, 0.00,60.00,Saturday
93,0.0
142,0.0
240,0.0
241,0.0
254,0.0
2,8, 1, 8, 0, 1, 0.00,60.00,Sunday
93,0.0
142,0.0
240,0.0
241,0.0
254,0.0
2,8, 1, 8, 0, 2, 0.00,60.00,Sunday
93,0.0
142,0.0
240,0.0
241,0.0
254,0.0
2,8, 1, 8, 0, 3, 0.00,60.00,Sunday
93,0.0
142,0.0
240,0.0
241,0.0
254,0.0
2,8, 1, 8, 0, 4, 0.00,60.00,Sunday
93,0.0
142,0.0
240,0.0
241,0.0
254,0.0
2,8, 1, 8, 0, 5, 0.00,60.00,Sunday
93,0.0
142,0.0
240,0.0
241,0.0
254,0.0
2,8, 1, 8, 0, 6, 0.00,60.00,Sunday
93,0.0
142,0.0
240,0.0
241,0.0
254,0.0
2,8, 1, 8, 0, 7, 0.00,60.00,Sunday
93,0.0
142,0.0
240,0.0
241,0.0
254,0.0
2,8, 1, 8, 0, 8, 0.00,60.00,Sunday
93,0.0
142,13804684.0157065
240,13804684.0157065
241,1066295.6979422206
254,12738388.31776428
2,8, 1, 8, 0, 9, 0.00,60.00,Sunday
93,0.0
142,97086737.17884068
240,97086737.17884068
241,10200639.16950213
254,86886098.00933854
2,8, 1, 8, 0,10, 0.00,60.00,Sunday
93,0.0
142,189979142.39511982
240,189979142.39511982
241,23053652.199258365
254,166925490.19586146
2,8, 1, 8, 0,11, 0.00,60.00,Sunday
93,0.0
142,232374372.90076885
240,232374372.90076885
241,30396899.385338508
254,201977473.51543033
2,8, 1, 8, 0,12, 0.00,60.00,Sunday
93,0.0
142,239134462.91487297
240,239134462.91487297
241,32825123.814505257
254,206309339.10036772
2,8, 1, 8, 0,13, 0.00,60.00,Sunday
93,0.0
142,229356823.81827593
240,229356823.81827593
241,31953427.787025195
254,197403396.03125075
2,8, 1, 8, 0,14, 0.00,60.00,Sunday
93,0.0
142,186530359.06536633
240,186530359.06536633
241,26640126.48774357
254,159890232.57762277
2,8, 1, 8, 0,15, 0.00,60.00,Sunday
93,0.0
142,144357341.6924042
240,144357341.6924042
241,20003405.582654137
254,124353936.10975008
2,8, 1, 8, 0,16, 0.00,60.00,Sunday
93,0.0
142,92383092.11842033
240,92383092.11842033
241,11519116.401502175
254,80863975.71691816
2,8, 1, 8, 0,17, 0.00,60.00,Sunday
93,0.0
142,22867816.26943612
240,22867816.26943612
241,2436350.2416297076
254,20431466.027806412
2,8, 1, 8, 0,18, 0.00,60.00,Sunday
93,0.0
142,0.0
240,0.0
241,0.0
254,0.0
2,8, 1, 8, 0,19, 0.00,60.00,Sunday
93,0.0
142,0.0
240,0.0
241,0.0
254,0.0
2,8, 1, 8, 0,20, 0.00,60.00,Sunday
93,0.0
142,0.0
240,0.0
241,0.0
254,0.0
2,8, 1, 8, 0,21, 0.00,60.00,Sunday
93,0.0
142,0.0
240,0.0
241,0.0
254,0.0
2,8, 1, 8, 0,22, 0.00,60.00,Sunday
93,0.0
142,0.0
240,0.0
241,0.0
254,0.0
2,8, 1, 8, 0,23, 0.00,60.00,Sunday
93,0.0
142,0.0
240,0.0
241,0.0
254,0.0
2,8, 1, 8, 0,24, 0.00,60.00,Sunday
93,0.0
142,0.0
240,0.0
241,0.0
254,0.0
2,9, 1, 9, 0, 1, 0.00,60.00,Monday
93,0.0
142,0.0
240,0.0
241,0.0
254,0.0
2,9, 1, 9, 0, 2, 0.00,60.00,Monday
93,0.0
142,0.0
240,0.0
241,0.0
254,0.0
2,9, 1, 9, 0, 3, 0.00,60.00,Monday
93,0.0
142,0.0
240,0.0
241,0.0
254,0.0
2,9, 1, 9, 0, 4, 0.00,60.00,Monday
93,0.0
142,0.0
240,0.0
241,0.0
254,0.0
2,9, 1, 9, 0, 5, 0.00,60.00,Monday
93,0.0
142,0.0
240,0.0
241,0.0
254,0.0
2,9, 1, 9, 0, 6, 0.00,60.00,Monday
93,0.0
142,0.0
240,0.0
241,0.0
254,0.0
2,9, 1, 9, 0, 7, 0.00,60.00,Monday
93,0.0
142,0.0
240,0.0
241,0.0
254,0.0
2,9, 1, 9, 0, 8, 0.00,60.00,Monday
93,0.0
142,11216570.395544332
240,11216570.395544332
241,1019707.2227931919
254,10196863.172751142
2,9, 1, 9, 0, 9, 0.00,60.00,Monday
93,0.0
142,66989518.10653038
240,66989518.10653038
241,7861375.945404605
254,59128142.16112578
2,9, 1, 9, 0,10, 0.00,60.00,Monday
93,0.0
142,89385485.06089668
240,89385485.06089668
241,12664267.362147756
254,76721217.69874892
2,9, 1, 9, 0,11, 0.00,60.00,Monday
93,0.0
142,79061150.79472855
240,79061150.79472855
241,12515691.872234158
254,66545458.92249438
2,9, 1, 9, 0,12, 0.00,60.00,Monday
93,0.0
142,44267476.898333274
240,44267476.898333274
241,8699968.049606193
254,35567508.84872708
2,9, 1, 9, 0,13, 0.00,60.00,Monday
93,0.0
142,45733631.497855134
240,45733631.497855134
241,9327920.803864291
254,36405710.69399084
2,9, 1, 9, 0,14, 0.00,60.00,Monday
93,0.0
142,42075140.14335174
240,42075140.14335174
241,8573357.474053359
254,33501782.669298388
2,9, 1, 9, 0,15, 0.00,60.00,Monday
93,0.0
142,31813194.6598686
240,31813194.6598686
241,6493409.465050602
254,25319785.194817998
2,9, 1, 9, 0,16, 0.00,60.00,Monday
93,0.0
142,21054998.79635015
240,21054998.79635015
241,4199602.365239192
254,16855396.43111096
2,9, 1, 9, 0,17, 0.00,60.00,Monday
93,0.0
142,5827904.412406962
240,5827904.412406962
241,1060258.333634256
254,4767646.078772707
2,9, 1, 9, 0,18, 0.00,60.00,Monday
93,0.0
142,0.0
240,0.0
241,0.0
254,0.0
2,9, 1, 9, 0,19, 0.00,60.00,Monday
93,0.0
142,0.0
240,0.0
241,0.0
254,0.0
2,9, 1, 9, 0,20, 0.00,60.00,Monday
93,0.0
142,0.0
240,0.0
241,0.0
254,0.0
2,9, 1, 9, 0,21, 0.00,60.00,Monday
93,0.0
142,0.0
240,0.0
241,0.0
254,0.0
2,9, 1, 9, 0,22, 0.00,60.00,Monday
93,0.0
142,0.0
240,0.0
241,0.0
254,0.0
2,9, 1, 9, 0,23, 0.00,60.00,Monday
93,0.0
142,0.0
240,0.0
241,0.0
254,0.0
2,9, 1, 9, 0,24, 0.00,60.00,Monday
93,0.0
142,0.0
240,0.0
241,0.0
254,0.0
2,10, 1,10, 0, 1, 0.00,60.00,Tuesday
93,0.0
142,0.0
240,0.0
241,0.0
254,0.0
2,10, 1,10, 0, 2, 0.00,60.00,Tuesday
93,0.0
142,0.0
240,0.0
241,0.0
254,0.0
2,10, 1,10, 0, 3, 0.00,60.00,Tuesday
93,0.0
142,0.0
240,0.0
241,0.0
254,0.0
2,10, 1,10, 0, 4, 0.00,60.00,Tuesday
93,0.0
142,0.0
240,0.0
241,0.0
254,0.0
2,10, 1,10, 0, 5, 0.00,60.00,Tuesday
93,0.0
142,0.0
240,0.0
241,0.0
254,0.0
2,10, 1,10, 0, 6, 0.00,60.00,Tuesday
93,0.0
142,0.0
240,0.0
241,0.0
254,0.0
2,10, 1,10, 0, 7, 0.00,60.00,Tuesday
93,0.0
142,0.0
240,0.0
241,0.0
254,0.0
2,10, 1,10, 0, 8, 0.00,60.00,Tuesday
93,0.0
142,1187530.5329960024
240,1187530.5329960024
241,249712.05805578988
254,937818.4749402124
2,10, 1,10, 0, 9, 0.00,60.00,Tuesday
93,0.0
142,7658894.07718044
240,7658894.07718044
241,1607521.3737341473
254,6051372.703446293
2,10, 1,10, 0,10, 0.00,60.00,Tuesday
93,0.0
142,15368327.335396852
240,15368327.335396852
241,3220245.082011123
254,12148082.25338573
2,10, 1,10, 0,11, 0.00,60.00,Tuesday
93,0.0
142,18559875.86802615
240,18559875.86802615
241,3886143.9034932298
254,14673731.96453292
2,10, 1,10, 0,12, 0.00,60.00,Tuesday
93,0.0
142,48009605.937937595
240,48009605.937937595
241,8227785.820996523
254,39781820.11694107
2,10, 1,10, 0,13, 0.00,60.00,Tuesday
93,0.0
142,171886952.50272605
240,171886952.50272605
241,24804331.62094333
254,147082620.8817827
2,10, 1,10, 0,14, 0.00,60.00,Tuesday
93,0.0
142,244422256.1141207
240,244422256.1141207
241,32169874.492193848
254,212252381.62192684
2,10, 1,10, 0,15, 0.00,60.00,Tuesday
93,0.0
142,219208473.06469592
240,219208473.06469592
241,26406189.787498448
254,192802283.27719748
2,10, 1,10, 0,16, 0.00,60.00,Tuesday
93,0.0
142,141417981.14483628
240,141417981.14483628
241,14499623.628648348
254,126918357.51618792
2,10, 1,10, 0,17, 0.00,60.00,Tuesday
93,0.0
142,28371427.43310141
240,28371427.43310141
241,2405894.593276118
254,25965532.839825287
2,10, 1,10, 0,18, 0.00,60.00,Tuesday
93,0.0
142,0.0
240,0.0
241,0.0
254,0.0
2,10, 1,10, 0,19, 0.00,60.00,Tuesday
93,0.0
142,0.0
240,0.0
241,0.0
254,0.0
2,10, 1,10, 0,20, 0.00,60.00,Tuesday
93,0.0
142,0.0
240,0.0
241,0.0
254,0.0
2,10, 1,10, 0,21, 0.00,60.00,Tuesday
93,0.0
142,0.0
240,0.0
241,0.0
254,0.0
2,10, 1,10, 0,22, 0.00,60.00,Tuesday
93,0.0
142,0.0
240,0.0
241,0.0
254,0.0
2,10, 1,10, 0,23, 0.00,60.00,Tuesday
93,0.0
142,0.0
240,0.0
241,0.0
254,0.0
2,10, 1,10, 0,24, 0.00,60.00,Tuesday
93,0.0
142,0.0
240,0.0
241,0.0
254,0.0
2,11, 1,11, 0, 1, 0.00,60.00,Wednesday
93,0.0
142,0.0
240,0.0
241,0.0
254,0.0
2,11, 1,11, 0, 2, 0.00,60.00,Wednesday
93,0.0
142,0.0
240,0.0
241,0.0
254,0.0
2,11, 1,11, 0, 3, 0.00,60.00,Wednesday
93,0.0
142,0.0
240,0.0
241,0.0
254,0.0
2,11, 1,11, 0, 4, 0.00,60.00,Wednesday
93,0.0
142,0.0
240,0.0
241,0.0
254,0.0
2,11, 1,11, 0, 5, 0.00,60.00,Wednesday
93,0.0
142,0.0
240,0.0
241,0.0
254,0.0
2,11, 1,11, 0, 6, 0.00,60.00,Wednesday
93,0.0
142,0.0
240,0.0
241,0.0
254,0.0
2,11, 1,11, 0, 7, 0.00,60.00,Wednesday
93,0.0
142,0.0
240,0.0
241,0.0
254,0.0
2,11, 1,11, 0, 8, 0.00,60.00,Wednesday
93,0.0
142,15363440.591992583
240,15363440.591992583
241,1140967.0100016943
254,14222473.58199089
2,11, 1,11, 0, 9, 0.00,60.00,Wednesday
93,0.0
142,109872345.93985759
240,109872345.93985759
241,11377477.427188825
254,98494868.51266876
2,11, 1,11, 0,10, 0.00,60.00,Wednesday
93,0.0
142,218453704.07605815
240,218453704.07605815
241,26146808.19738482
254,192306895.87867332
2,11, 1,11, 0,11, 0.00,60.00,Wednesday
93,0.0
142,299152454.2393078
240,299152454.2393078
241,38212117.5534884
254,260940336.68581945
2,11, 1,11, 0,12, 0.00,60.00,Wednesday
93,0.0
142,342144479.18290573
240,342144479.18290573
241,44695396.58825167
254,297449082.594654
2,11, 1,11, 0,13, 0.00,60.00,Wednesday
93,0.0
142,346680760.47647506
240,346680760.47647506
241,45191563.63132499
254,301489196.84515005
2,11, 1,11, 0,14, 0.00,60.00,Wednesday
93,0.0
142,315369892.2734688
240,315369892.2734688
241,40014607.78697097
254,275355284.4864979
2,11, 1,11, 0,15, 0.00,60.00,Wednesday
93,0.0
142,252397619.1125282
240,252397619.1125282
241,29852266.431305103
254,222545352.6812231
2,11, 1,11, 0,16, 0.00,60.00,Wednesday
93,0.0
142,161811221.75857937
240,161811221.75857937
241,16080807.476687763
254,145730414.28189158
2,11, 1,11, 0,17, 0.00,60.00,Wednesday
93,0.0
142,39403077.47791794
240,39403077.47791794
241,2705714.429223952
254,36697363.04869399
2,11, 1,11, 0,18, 0.00,60.00,Wednesday
93,0.0
142,0.0
240,0.0
241,0.0
254,0.0
2,11, 1,11, 0,19, 0.00,60.00,Wednesday
93,0.0
142,0.0
240,0.0
241,0.0
254,0.0
2,11, 1,11, 0,20, 0.00,60.00,Wednesday
93,0.0
142,0.0
240,0.0
241,0.0
254,0.0
2,11, 1,11, 0,21, 0.00,60.00,Wednesday
93,0.0
142,0.0
240,0.0
241,0.0
254,0.0
2,11, 1,11, 0,22, 0.00,60.00,Wednesday
93,0.0
142,0.0
240,0.0
241,0.0
254,0.0
2,11, 1,11, 0,23, 0.00,60.00,Wednesday
93,0.0
142,0.0
240,0.0
241,0.0
254,0.0
2,11, 1,11, 0,24, 0.00,60.00,Wednesday
93,0.0
142,0.0
240,0.0
241,0.0
254,0.0
2,12, 1,12, 0, 1, 0.00,60.00,Thursday
93,0.0
142,0.0
240,0.0
241,0.0
254,0.0
2,12, 1,12, 0, 2, 0.00,60.00,Thursday
93,0.0
142,0.0
240,0.0
241,0.0
254,0.0
2,12, 1,12, 0, 3, 0.00,60.00,Thursday
93,0.0
142,0.0
240,0.0
241,0.0
254,0.0
2,12, 1,12, 0, 4, 0.00,60.00,Thursday
93,0.0
142,0.0
240,0.0
241,0.0
254,0.0
2,12, 1,12, 0, 5, 0.00,60.00,Thursday
93,0.0
142,0.0
240,0.0
241,0.0
254,0.0
2,12, 1,12, 0, 6, 0.00,60.00,Thursday
93,0.0
142,0.0
240,0.0
241,0.0
254,0.0
2,12, 1,12, 0, 7, 0.00,60.00,Thursday
93,0.0
142,0.0
240,0.0
241,0.0
254,0.0
2,12, 1,12, 0, 8, 0.00,60.00,Thursday
93,0.0
142,4170663.0255091945
240,4170663.0255091945
241,726187.041571297
254,3444475.9839378977
2,12, 1,12, 0, 9, 0.00,60.00,Thursday
93,0.0
142,30571032.40696362
240,30571032.40696362
241,5034405.189071437
254,25536627.217892185
2,12, 1,12, 0,10, 0.00,60.00,Thursday
93,0.0
142,72499380.42047107
240,72499380.42047107
241,11459741.109605253
254,61039639.31086582
2,12, 1,12, 0,11, 0.00,60.00,Thursday
93,0.0
142,111944366.09904334
240,111944366.09904334
241,17662756.951358024
254,94281609.14768532
2,12, 1,12, 0,12, 0.00,60.00,Thursday
93,0.0
142,112616808.96317743
240,112616808.96317743
241,18332511.16016625
254,94284297.80301118
2,12, 1,12, 0,13, 0.00,60.00,Thursday
93,0.0
142,124039875.08270368
240,124039875.08270368
241,20563442.066190615
254,103476433.01651308
2,12, 1,12, 0,14, 0.00,60.00,Thursday
93,0.0
142,94285143.96445423
240,94285143.96445423
241,16306266.97585033
254,77978876.9886039
2,12, 1,12, 0,15, 0.00,60.00,Thursday
93,0.0
142,41149870.51803338
240,41149870.51803338
241,7854413.194610943
254,33295457.32342244
2,12, 1,12, 0,16, 0.00,60.00,Thursday
93,0.0
142,16653366.286611415
240,16653366.286611415
241,3448994.945672663
254,13204371.340938753
2,12, 1,12, 0,17, 0.00,60.00,Thursday
93,0.0
142,4214120.190639959
240,4214120.190639959
241,844992.4935298273
254,3369127.6971101314
2,12, 1,12, 0,18, 0.00,60.00,Thursday
93,0.0
142,0.0
240,0.0
241,0.0
254,0.0
2,12, 1,12, 0,19, 0.00,60.00,Thursday
93,0.0
142,0.0
240,0.0
241,0.0
254,0.0
2,12, 1,12, 0,20, 0.00,60.00,Thursday
93,0.0
142,0.0
240,0.0
241,0.0
254,0.0
2,12, 1,12, 0,21, 0.00,60.00,Thursday
93,0.0
142,0.0
240,0.0
241,0.0
254,0.0
2,12, 1,12, 0,22, 0.00,60.00,Thursday
93,0.0
142,0.0
240,0.0
241,0.0
254,0.0
2,12, 1,12, 0,23, 0.00,60.00,Thursday
93,0.0
142,0.0
240,0.0
241,0.0
254,0.0
2,12, 1,12, 0,24, 0.00,60.00,Thursday
93,0.0
142,0.0
240,0.0
241,0.0
254,0.0
2,13, 1,13, 0, 1, 0.00,60.00,Friday
93,0.0
142,0.0
240,0.0
241,0.0
254,0.0
2,13, 1,13, 0, 2, 0.00,60.00,Friday
93,0.0
142,0.0
240,0.0
241,0.0
254,0.0
2,13, 1,13, 0, 3, 0.00,60.00,Friday
93,0.0
142,0.0
240,0.0
241,0.0
254,0.0
2,13, 1,13, 0, 4, 0.00,60.00,Friday