Program Version,EnergyPlus, Version 23.1.0-87ed9199d4, YMD=2024.12.04 19:48
1,5,Environment Title[],Latitude[deg],Longitude[deg],Time Zone[],Elevation[m]
2,8,Day of Simulation[],Month[],Day of Month[],DST Indicator[1=yes 0=no],Hour[],StartMinute[],EndMinute[],DayType
3,5,Cumulative Day of Simulation[],Month[],Day of Month[],DST Indicator[1=yes 0=no],DayType  ! When Daily Report Variables Requested
4,2,Cumulative Days of Simulation[],Month[]  ! When Monthly Report Variables Requested
5,1,Cumulative Days of Simulation[] ! When Run Period Report Variables Requested
6,1,Calendar Year of Simulation[] ! When Annual Report Variables Requested
93,1,Whole Building,Facility Total Purchased Electricity Energy [J] !Hourly
142,1,Whole Building,Facility Total Surplus Electricity Energy [J] !Hourly
240,1,Whole Building,Facility Total Produced Electricity Energy [J] !Hourly
241,1,PANEL0,Generator Produced DC Electricity Energy [J] !Hourly
End of Data Dictionary
1,CLIMATE STUDIO,  40.70, -74.01,  -5.00,   2.10
2,1, 1, 1, 0, 1, 0.00,60.00,Sunday
93,0.0
142,0.0
240,0.0
241,0.0
2,1, 1, 1, 0, 2, 0.00,60.00,Sunday
93,0.0
142,0.0
240,0.0
241,0.0
2,1, 1, 1, 0, 3, 0.00,60.00,Sunday
93,0.0
142,0.0
240,0.0
241,0.0
2,1, 1, 1, 0, 4, 0.00,60.00,Sunday
93,0.0
142,0.0
240,0.0
241,0.0
2,1, 1, 1, 0, 5, 0.00,60.00,Sunday
93,0.0
142,0.0
240,0.0
241,0.0
2,1, 1, 1, 0, 6, 0.00,60.00,Sunday
93,0.0
142,0.0
240,0.0
241,0.0
2,1, 1, 1, 0, 7, 0.00,60.00,Sunday
93,0.0
142,0.0
240,0.0
241,0.0
2,1, 1, 1, 0, 8, 0.00,60.00,Sunday
93,0.0
142,3434918.86442113
240,3434918.86442113
241,3434918.86442113
2,1, 1, 1, 0, 9, 0.00,60.00,Sunday
93,0.0
142,29921792.10113374
240,29921792.10113374
241,29921792.10113374
2,1, 1, 1, 0,10, 0.00,60.00,Sunday
93,0.0
142,67004227.29534992
240,67004227.29534992
241,67004227.29534992
2,1, 1, 1, 0,11, 0.00,60.00,Sunday
93,0.0
142,89896718.7824259
240,89896718.7824259
241,89896718.7824259
2,1, 1, 1, 0,12, 0.00,60.00,Sunday
93,0.0
142,103943568.10576701
240,103943568.10576701
241,103943568.10576701
2,1, 1, 1, 0,13, 0.00,60.00,Sunday
93,0.0
142,83502762.06789035
240,83502762.06789035
241,83502762.06789035
2,1, 1, 1, 0,14, 0.00,60.00,Sunday
93,0.0
142,60142652.860874444
240,60142652.860874444
241,60142652.860874444
2,1, 1, 1, 0,15, 0.00,60.00,Sunday
93,0.0
142,39294835.79311775
240,39294835.79311775
241,39294835.79311775
2,1, 1, 1, 0,16, 0.00,60.00,Sunday
93,0.0
142,21809837.50789831
240,21809837.50789831
241,21809837.50789831
2,1, 1, 1, 0,17, 0.00,60.00,Sunday
93,0.0
142,4840216.244013343
240,4840216.244013343
241,4840216.244013343
2,1, 1, 1, 0,18, 0.00,60.00,Sunday
93,0.0
142,0.0
240,0.0
241,0.0
2,1, 1, 1, 0,19, 0.00,60.00,Sunday
93,0.0
142,0.0
240,0.0
241,0.0
2,1, 1, 1, 0,20, 0.00,60.00,Sunday
93,0.0
142,0.0
240,0.0
241,0.0
2,1, 1, 1, 0,21, 0.00,60.00,Sunday
93,0.0
142,0.0
240,0.0
241,0.0
2,1, 1, 1, 0,22, 0.00,60.00,Sunday
93,0.0
142,0.0
240,0.0
241,0.0
2,1, 1, 1, 0,23, 0.00,60.00,Sunday
93,0.0
142,0.0
240,0.0
241,0.0
2,1, 1, 1, 0,24, 0.00,60.00,Sunday
93,0.0
142,0.0
240,0.0
241,0.0
2,2, 1, 2, 0, 1, 0.00,60.00,Monday
93,0.0
142,0.0
240,0.0
241,0.0
2,2, 1, 2, 0, 2, 0.00,60.00,Monday
93,0.0
142,0.0
240,0.0
241,0.0
2,2, 1, 2, 0, 3, 0.00,60.00,Monday
93,0.0
142,0.0
240,0.0
241,0.0
2,2, 1, 2, 0, 4, 0.00,60.00,Monday
93,0.0
142,0.0
240,0.0
241,0.0
2,2, 1, 2, 0, 5, 0.00,60.00,Monday
93,0.0
142,0.0
240,0.0
241,0.0
2,2, 1, 2, 0, 6, 0.00,60.00,Monday
93,0.0
142,0.0
240,0.0
241,0.0
2,2, 1, 2, 0, 7, 0.00,60.00,Monday
93,0.0
142,0.0
240,0.0
241,0.0
2,2, 1, 2, 0, 8, 0.00,60.00,Monday
93,0.0
142,2427112.956160688
240,2427112.956160688
241,2427112.956160688
2,2, 1, 2, 0, 9, 0.00,60.00,Monday
93,0.0
142,16748820.082677042
240,16748820.082677042
241,16748820.082677042
2,2, 1, 2, 0,10, 0.00,60.00,Monday
93,0.0
142,37057243.83518227
240,37057243.83518227
241,37057243.83518227
2,2, 1, 2, 0,11, 0.00,60.00,Monday
93,0.0
142,58843199.69783355
240,58843199.69783355
241,58843199.69783355
2,2, 1, 2, 0,12, 0.00,60.00,Monday
93,0.0
142,89081525.01025966
240,89081525.01025966
241,89081525.01025966
2,2, 1, 2, 0,13, 0.00,60.00,Monday
93,0.0
142,120746413.50003123
240,120746413.50003123
241,120746413.50003123
2,2, 1, 2, 0,14, 0.00,60.00,Monday
93,0.0
142,99121657.04284795
240,99121657.04284795
241,99121657.04284795
2,2, 1, 2, 0,15, 0.00,60.00,Monday
93,0.0
142,75539424.76952107
240,75539424.76952107
241,75539424.76952107
2,2, 1, 2, 0,16, 0.00,60.00,Monday
93,0.0
142,39149928.26832185
240,39149928.26832185
241,39149928.26832185
2,2, 1, 2, 0,17, 0.00,60.00,Monday
93,0.0
142,6008071.803673898
240,6008071.803673898
241,6008071.803673898
2,2, 1, 2, 0,18, 0.00,60.00,Monday
93,0.0
142,0.0
240,0.0
241,0.0
2,2, 1, 2, 0,19, 0.00,60.00,Monday
93,0.0
142,0.0
240,0.0
241,0.0
2,2, 1, 2, 0,20, 0.00,60.00,Monday
93,0.0
142,0.0
240,0.0
241,0.0
2,2, 1, 2, 0,21, 0.00,60.00,Monday
93,0.0
142,0.0
240,0.0
241,0.0
2,2, 1, 2, 0,22, 0.00,60.00,Monday
93,0.0
142,0.0
240,0.0
241,0.0
2,2, 1, 2, 0,23, 0.00,60.00,Monday
93,0.0
142,0.0
240,0.0
241,0.0
2,2, 1, 2, 0,24, 0.00,60.00,Monday
93,0.0
142,0.0
240,0.0
241,0.0
2,3, 1, 3, 0, 1, 0.00,60.00,Tuesday
93,0.0
142,0.0
240,0.0
241,0.0
2,3, 1, 3, 0, 2, 0.00,60.00,Tuesday
93,0.0
142,0.0
240,0.0
241,0.0
2,3, 1, 3, 0, 3, 0.00,60.00,Tuesday
93,0.0
142,0.0
240,0.0
241,0.0
2,3, 1, 3, 0, 4, 0.00,60.00,Tuesday
93,0.0
142,0.0
240,0.0
241,0.0
2,3, 1, 3, 0, 5, 0.00,60.00,Tuesday
93,0.0
142,0.0
240,0.0
241,0.0
2,3, 1, 3, 0, 6, 0.00,60.00,Tuesday
93,0.0
142,0.0
240,0.0
241,0.0
2,3, 1, 3, 0, 7, 0.00,60.00,Tuesday
93,0.0
142,0.0
240,0.0
241,0.0
2,3, 1, 3, 0, 8, 0.00,60.00,Tuesday
93,0.0
142,3821476.7486236813
240,3821476.7486236813
241,3821476.7486236813
2,3, 1, 3, 0, 9, 0.00,60.00,Tuesday
93,0.0
142,38337112.3491394
240,38337112.3491394
241,38337112.3491394
2,3, 1, 3, 0,10, 0.00,60.00,Tuesday
93,0.0
142,88017709.36794916
240,88017709.36794916
241,88017709.36794916
2,3, 1, 3, 0,11, 0.00,60.00,Tuesday
93,0.0
142,128321385.13955548
240,128321385.13955548
241,128321385.13955548
2,3, 1, 3, 0,12, 0.00,60.00,Tuesday
93,0.0
142,149177965.79542992
240,149177965.79542992
241,149177965.79542992
2,3, 1, 3, 0,13, 0.00,60.00,Tuesday
93,0.0
142,145490843.78629637
240,145490843.78629637
241,145490843.78629637
2,3, 1, 3, 0,14, 0.00,60.00,Tuesday
93,0.0
142,120046512.3663851
240,120046512.3663851
241,120046512.3663851
2,3, 1, 3, 0,15, 0.00,60.00,Tuesday
93,0.0
142,82121667.26207222
240,82121667.26207222
241,82121667.26207222
2,3, 1, 3, 0,16, 0.00,60.00,Tuesday
93,0.0
142,39632661.00841807
240,39632661.00841807
241,39632661.00841807
2,3, 1, 3, 0,17, 0.00,60.00,Tuesday
93,0.0
142,5870797.162853276
240,5870797.162853276
241,5870797.162853276
2,3, 1, 3, 0,18, 0.00,60.00,Tuesday
93,0.0
142,0.0
240,0.0
241,0.0
2,3, 1, 3, 0,19, 0.00,60.00,Tuesday
93,0.0
142,0.0
240,0.0
241,0.0
2,3, 1, 3, 0,20, 0.00,60.00,Tuesday
93,0.0
142,0.0
240,0.0
241,0.0
2,3, 1, 3, 0,21, 0.00,60.00,Tuesday
93,0.0
142,0.0
240,0.0
241,0.0
2,3, 1, 3, 0,22, 0.00,60.00,Tuesday
93,0.0
142,0.0
240,0.0
241,0.0
2,3, 1, 3, 0,23, 0.00,60.00,Tuesday
93,0.0
142,0.0
240,0.0
241,0.0
2,3, 1, 3, 0,24, 0.00,60.00,Tuesday
93,0.0
142,0.0
240,0.0
241,0.0
2,4, 1, 4, 0, 1, 0.00,60.00,Wednesday
93,0.0
142,0.0
240,0.0
241,0.0
2,4, 1, 4, 0, 2, 0.00,60.00,Wednesday
93,0.0
142,0.0
240,0.0
241,0.0
2,4, 1, 4, 0, 3, 0.00,60.00,Wednesday
93,0.0
142,0.0
240,0.0
241,0.0
2,4, 1, 4, 0, 4, 0.00,60.00,Wednesday
93,0.0
142,0.0
240,0.0
241,0.0
2,4, 1, 4, 0, 5, 0.00,60.00,Wednesday
93,0.0
142,0.0
240,0.0
241,0.0
2,4, 1, 4, 0, 6, 0.00,60.00,Wednesday
93,0.0
142,0.0
240,0.0
241,0.0
2,4, 1, 4, 0, 7, 0.00,60.00,Wednesday
93,0.0
142,0.0
240,0.0
241,0.0
2,4, 1, 4, 0, 8, 0.00,60.00,Wednesday
93,0.0
142,3908631.215714867
240,3908631.215714867
241,3908631.215714867
2,4, 1, 4, 0, 9, 0.00,60.00,Wednesday
93,0.0
142,38789571.4656142
240,38789571.4656142
241,38789571.4656142
2,4, 1, 4, 0,10, 0.00,60.00,Wednesday
93,0.0
142,89520619.46282333
240,89520619.46282333
241,89520619.46282333
2,4, 1, 4, 0,11, 0.00,60.00,Wednesday
93,0.0
142,131262031.92138658
240,131262031.92138658
241,131262031.92138658
2,4, 1, 4, 0,12, 0.00,60.00,Wednesday
93,0.0
142,153482887.1322559
240,153482887.1322559
241,153482887.1322559
2,4, 1, 4, 0,13, 0.00,60.00,Wednesday
93,0.0
142,150111273.07297286
240,150111273.07297286
241,150111273.07297286
2,4, 1, 4, 0,14, 0.00,60.00,Wednesday
93,0.0
142,124201410.678364
240,124201410.678364
241,124201410.678364
2,4, 1, 4, 0,15, 0.00,60.00,Wednesday
93,0.0
142,85303882.0902177
240,85303882.0902177
241,85303882.0902177
2,4, 1, 4, 0,16, 0.00,60.00,Wednesday
93,0.0
142,41971919.56420894
240,41971919.56420894
241,41971919.56420894
2,4, 1, 4, 0,17, 0.00,60.00,Wednesday
93,0.0
142,6942945.220131871
240,6942945.220131871
241,6942945.220131871
2,4, 1, 4, 0,18, 0.00,60.00,Wednesday
93,0.0
142,0.0
240,0.0
241,0.0
2,4, 1, 4, 0,19, 0.00,60.00,Wednesday
93,0.0
142,0.0
240,0.0
241,0.0
2,4, 1, 4, 0,20, 0.00,60.00,Wednesday
93,0.0
142,0.0
240,0.0
241,0.0
2,4, 1, 4, 0,21, 0.00,60.00,Wednesday
93,0.0
142,0.0
240,0.0
241,0.0
2,4, 1, 4, 0,22, 0.00,60.00,Wednesday
93,0.0
142,0.0
240,0.0
241,0.0
2,4, 1, 4, 0,23, 0.00,60.00,Wednesday
93,0.0
142,0.0
240,0.0
241,0.0
2,4, 1, 4, 0,24, 0.00,60.00,Wednesday
93,0.0
142,0.0
240,0.0
241,0.0
2,5, 1, 5, 0, 1, 0.00,60.00,Thursday
93,0.0
142,0.0
240,0.0
241,0.0
2,5, 1, 5, 0, 2, 0.00,60.00,Thursday
93,0.0
142,0.0
240,0.0
241,0.0
2,5, 1, 5, 0, 3, 0.00,60.00,Thursday
93,0.0
142,0.0
240,0.0
241,0.0
2,5, 1, 5, 0, 4, 0.00,60.00,Thursday
93,0.0
142,0.0
240,0.0
241,0.0
2,5, 1, 5, 0, 5, 0.00,60.00,Thursday
93,0.0
142,0.0
240,0.0
241,0.0
2,5, 1, 5, 0, 6, 0.00,60.00,Thursday
93,0.0
142,0.0
240,0.0
241,0.0
2,5, 1, 5, 0, 7, 0.00,60.00,Thursday
93,0.0
142,0.0
240,0.0
241,0.0
2,5, 1, 5, 0, 8, 0.00,60.00,Thursday
93,0.0
142,4112375.1244228883
240,4112375.1244228883
241,4112375.1244228883
2,5, 1, 5, 0, 9, 0.00,60.00,Thursday
93,0.0
142,42621547.25850641
240,42621547.25850641
241,42621547.25850641
2,5, 1, 5, 0,10, 0.00,60.00,Thursday
93,0.0
142,96357803.56644902
240,96357803.56644902
241,96357803.56644902
2,5, 1, 5, 0,11, 0.00,60.00,Thursday
93,0.0
142,137626725.27990434
240,137626725.27990434
241,137626725.27990434
2,5, 1, 5, 0,12, 0.00,60.00,Thursday
93,0.0
142,158854862.83636415
240,158854862.83636415
241,158854862.83636415
2,5, 1, 5, 0,13, 0.00,60.00,Thursday
93,0.0
142,154114549.16243216
240,154114549.16243216
241,154114549.16243216
2,5, 1, 5, 0,14, 0.00,60.00,Thursday
93,0.0
142,127296805.43649459
240,127296805.43649459
241,127296805.43649459
2,5, 1, 5, 0,15, 0.00,60.00,Thursday
93,0.0
142,87617004.67806412
240,87617004.67806412
241,87617004.67806412
2,5, 1, 5, 0,16, 0.00,60.00,Thursday
93,0.0
142,43235452.15718114
240,43235452.15718114
241,43235452.15718114
2,5, 1, 5, 0,17, 0.00,60.00,Thursday
93,0.0
142,7185304.485676428
240,7185304.485676428
241,7185304.485676428
2,5, 1, 5, 0,18, 0.00,60.00,Thursday
93,0.0
142,0.0
240,0.0
241,0.0
2,5, 1, 5, 0,19, 0.00,60.00,Thursday
93,0.0
142,0.0
240,0.0
241,0.0
2,5, 1, 5, 0,20, 0.00,60.00,Thursday
93,0.0
142,0.0
240,0.0
241,0.0
2,5, 1, 5, 0,21, 0.00,60.00,Thursday
93,0.0
142,0.0
240,0.0
241,0.0
2,5, 1, 5, 0,22, 0.00,60.00,Thursday
93,0.0
142,0.0
240,0.0
241,0.0
2,5, 1, 5, 0,23, 0.00,60.00,Thursday
93,0.0
142,0.0
240,0.0
241,0.0
2,5, 1, 5, 0,24, 0.00,60.00,Thursday
93,0.0
142,0.0
240,0.0
241,0.0
2,6, 1, 6, 0, 1, 0.00,60.00,Friday
93,0.0
142,0.0
240,0.0
241,0.0
2,6, 1, 6, 0, 2, 0.00,60.00,Friday
93,0.0
142,0.0
240,0.0
241,0.0
2,6, 1, 6, 0, 3, 0.00,60.00,Friday
93,0.0
142,0.0
240,0.0
241,0.0
2,6, 1, 6, 0, 4, 0.00,60.00,Friday
93,0.0
142,0.0
240,0.0
241,0.0
2,6, 1, 6, 0, 5, 0.00,60.00,Friday
93,0.0
142,0.0
240,0.0
241,0.0
2,6, 1, 6, 0, 6, 0.00,60.00,Friday
93,0.0
142,0.0
240,0.0
241,0.0
2,6, 1, 6, 0, 7, 0.00,60.00,Friday
93,0.0
142,0.0
240,0.0
241,0.0
2,6, 1, 6, 0, 8, 0.00,60.00,Friday
93,0.0
142,4014939.1933637764
240,4014939.1933637764
241,4014939.1933637764
2,6, 1, 6, 0, 9, 0.00,60.00,Friday
93,0.0
142,41206286.2056229
240,41206286.2056229
241,41206286.2056229
2,6, 1, 6, 0,10, 0.00,60.00,Friday
93,0.0
142,93958019.69651245
240,93958019.69651245
241,93958019.69651245
2,6, 1, 6, 0,11, 0.00,60.00,Friday
93,0.0
142,135461332.23355088
240,135461332.23355088
241,135461332.23355088
2,6, 1, 6, 0,12, 0.00,60.00,Friday
93,0.0
142,157589647.419703
240,157589647.419703
241,157589647.419703
2,6, 1, 6, 0,13, 0.00,60.00,Friday
93,0.0
142,153522816.18459415
240,153522816.18459415
241,153522816.18459415
2,6, 1, 6, 0,14, 0.00,60.00,Friday
93,0.0
142,126829364.96918058
240,126829364.96918058
241,126829364.96918058
2,6, 1, 6, 0,15, 0.00,60.00,Friday
93,0.0
142,87221744.35135451
240,87221744.35135451
241,87221744.35135451
2,6, 1, 6, 0,16, 0.00,60.00,Friday
93,0.0
142,43098036.42978258
240,43098036.42978258
241,43098036.42978258
2,6, 1, 6, 0,17, 0.00,60.00,Friday
93,0.0
142,7287152.810256943
240,7287152.810256943
241,7287152.810256943
2,6, 1, 6, 0,18, 0.00,60.00,Friday
93,0.0
142,0.0
240,0.0
241,0.0
2,6, 1, 6, 0,19, 0.00,60.00,Friday
93,0.0
142,0.0
240,0.0
241,0.0
2,6, 1, 6, 0,20, 0.00,60.00,Friday
93,0.0
142,0.0
240,0.0
241,0.0
2,6, 1, 6, 0,21, 0.00,60.00,Friday
93,0.0
142,0.0
240,0.0
241,0.0
2,6, 1, 6, 0,22, 0.00,60.00,Friday
93,0.0
142,0.0
240,0.0
241,0.0
2,6, 1, 6, 0,23, 0.00,60.00,Friday
93,0.0
142,0.0
240,0.0
241,0.0
2,6, 1, 6, 0,24, 0.00,60.00,Friday
93,0.0
142,0.0
240,0.0
241,0.0
2,7, 1, 7, 0, 1, 0.00,60.00,Saturday
93,0.0
142,0.0
240,0.0
241,0.0
2,7, 1, 7, 0, 2, 0.00,60.00,Saturday
93,0.0
142,0.0
240,0.0
241,0.0
2,7, 1, 7, 0, 3, 0.00,60.00,Saturday
93,0.0
142,0.0
240,0.0
241,0.0
2,7, 1, 7, 0, 4, 0.00,60.00,Saturday
93,0.0
142,0.0
240,0.0
241,0.0
2,7, 1, 7, 0, 5, 0.00,60.00,Saturday
93,0.0
142,0.0
240,0.0
241,0.0
2,7, 1, 7, 0, 6, 0.00,60.00,Saturday
93,0.0
142,0.0
240,0.0
241,0.0
2,7, 1, 7, 0, 7, 0.00,60.00,Saturday
93,0.0
142,0.0
240,0.0
241,0.0
2,7, 1, 7, 0, 8, 0.00,60.00,Saturday
93,0.0
142,3591921.204678417
240,3591921.204678417
241,3591921.204678417
2,7, 1, 7, 0, 9, 0.00,60.00,Saturday
93,0.0
142,33997539.750780076
240,33997539.750780076
241,33997539.750780076
2,7, 1, 7, 0,10, 0.00,60.00,Saturday
93,0.0
142,77916089.97324282
240,77916089.97324282
241,77916089.97324282
2,7, 1, 7, 0,11, 0.00,60.00,Saturday
93,0.0
142,111748760.78021394
240,111748760.78021394
241,111748760.78021394
2,7, 1, 7, 0,12, 0.00,60.00,Saturday
93,0.0
142,119242906.14555368
240,119242906.14555368
241,119242906.14555368
2,7, 1, 7, 0,13, 0.00,60.00,Saturday
93,0.0
142,114042467.61105543
240,114042467.61105543
241,114042467.61105543
2,7, 1, 7, 0,14, 0.00,60.00,Saturday
93,0.0
142,92024073.74371196
240,92024073.74371196
241,92024073.74371196
2,7, 1, 7, 0,15, 0.00,60.00,Saturday
93,0.0
142,73716699.4109442
240,73716699.4109442
241,73716699.4109442
2,7, 1, 7, 0,16, 0.00,60.00,Saturday
93,0.0
142,40415376.99645192
240,40415376.99645192
241,40415376.99645192
2,7, 1, 7, 0,17, 0.00,60.00,Saturday
93,0.0
142,7406063.297907034
240,7406063.297907034
241,7406063.297907034
2,7, 1, 7, 0,18, 0.00,60.00,Saturday
93,0.0
142,0.0
240,0.0
241,0.0
2,7, 1, 7, 0,19, 0.00,60.00,Saturday
93,0.0
142,0.0
240,0.0
241,0.0
2,7, 1, 7, 0,20, 0.00,60.00,Saturday
93,0.0
142,0.0
240,0.0
241,0.0
2,7, 1, 7, 0,21, 0.00,60.00,Saturday
93,0.0
142,0.0
240,0.0
241,0.0
2,7, 1, 7, 0,22, 0.00,60.00,Saturday
93,0.0
142,0.0
240,0.0
241,0.0
2,7, 1, 7, 0,23, 0.00,60.00,Saturday
93,0.0
142,0.0
240,0.0
241,0.0
2,7, 1, 7, 0,24, 0.00,60.00,Saturday
93,0.0
142,0.0
240,0.0
241,0.0
2,8, 1, 8, 0, 1, 0.00,60.00,Sunday
93,0.0
142,0.0
240,0.0
241,0.0
2,8, 1, 8, 0, 2, 0.00,60.00,Sunday
93,0.0
142,0.0
240,0.0
241,0.0
2,8, 1, 8, 0, 3, 0.00,60.00,Sunday
93,0.0
142,0.0
240,0.0
241,0.0
2,8, 1, 8, 0, 4, 0.00,60.00,Sunday
93,0.0
142,0.0
240,0.0
241,0.0
2,8, 1, 8, 0, 5, 0.00,60.00,Sunday
93,0.0
142,0.0
240,0.0
241,0.0
2,8, 1, 8, 0, 6, 0.00,60.00,Sunday
93,0.0
142,0.0
240,0.0
241,0.0
2,8, 1, 8, 0, 7, 0.00,60.00,Sunday
93,0.0
142,0.0
240,0.0
241,0.0
2,8, 1, 8, 0, 8, 0.00,60.00,Sunday
93,0.0
142,3739146.2638553297
240,3739146.2638553297
241,3739146.2638553297
2,8, 1, 8, 0, 9, 0.00,60.00,Sunday
93,0.0
142,35752087.59828682
240,35752087.59828682
241,35752087.59828682
2,8, 1, 8, 0,10, 0.00,60.00,Sunday
93,0.0
142,80785554.30852988
240,80785554.30852988
241,80785554.30852988
2,8, 1, 8, 0,11, 0.00,60.00,Sunday
93,0.0
142,106529790.54365693
240,106529790.54365693
241,106529790.54365693
2,8, 1, 8, 0,12, 0.00,60.00,Sunday
93,0.0
142,115065693.36237366
240,115065693.36237366
241,115065693.36237366
2,8, 1, 8, 0,13, 0.00,60.00,Sunday
93,0.0
142,109095797.47750215
240,109095797.47750215
241,109095797.47750215
2,8, 1, 8, 0,14, 0.00,60.00,Sunday
93,0.0
142,87409335.19801237
240,87409335.19801237
241,87409335.19801237
2,8, 1, 8, 0,15, 0.00,60.00,Sunday
93,0.0
142,63104295.307779446
240,63104295.307779446
241,63104295.307779446
2,8, 1, 8, 0,16, 0.00,60.00,Sunday
93,0.0
142,35260634.84418012
240,35260634.84418012
241,35260634.84418012
2,8, 1, 8, 0,17, 0.00,60.00,Sunday
93,0.0
142,7512857.637588817
240,7512857.637588817
241,7512857.637588817
2,8, 1, 8, 0,18, 0.00,60.00,Sunday
93,0.0
142,0.0
240,0.0
241,0.0
2,8, 1, 8, 0,19, 0.00,60.00,Sunday
93,0.0
142,0.0
240,0.0
241,0.0
2,8, 1, 8, 0,20, 0.00,60.00,Sunday
93,0.0
142,0.0
240,0.0
241,0.0
2,8, 1, 8, 0,21, 0.00,60.00,Sunday
93,0.0
142,0.0
240,0.0
241,0.0
2,8, 1, 8, 0,22, 0.00,60.00,Sunday
93,0.0
142,0.0
240,0.0
241,0.0
2,8, 1, 8, 0,23, 0.00,60.00,Sunday
93,0.0
142,0.0
240,0.0
241,0.0
2,8, 1, 8, 0,24, 0.00,60.00,Sunday
93,0.0
142,0.0
240,0.0
241,0.0
2,9, 1, 9, 0, 1, 0.00,60.00,Monday
93,0.0
142,0.0
240,0.0
241,0.0
2,9, 1, 9, 0, 2, 0.00,60.00,Monday
93,0.0
142,0.0
240,0.0
241,0.0
2,9, 1, 9, 0, 3, 0.00,60.00,Monday
93,0.0
142,0.0
240,0.0
241,0.0
2,9, 1, 9, 0, 4, 0.00,60.00,Monday
93,0.0
142,0.0
240,0.0
241,0.0
2,9, 1, 9, 0, 5, 0.00,60.00,Monday
93,0.0
142,0.0
240,0.0
241,0.0
2,9, 1, 9, 0, 6, 0.00,60.00,Monday
93,0.0
142,0.0
240,0.0
241,0.0
2,9, 1, 9, 0, 7, 0.00,60.00,Monday
93,0.0
142,0.0
240,0.0
241,0.0
2,9, 1, 9, 0, 8, 0.00,60.00,Monday
93,0.0
142,3578266.054924864
240,3578266.054924864
241,3578266.054924864
2,9, 1, 9, 0, 9, 0.00,60.00,Monday
93,0.0
142,27576177.71557897
240,27576177.71557897
241,27576177.71557897
2,9, 1, 9, 0,10, 0.00,60.00,Monday
93,0.0
142,44437729.138590135
240,44437729.138590135
241,44437729.138590135
2,9, 1, 9, 0,11, 0.00,60.00,Monday
93,0.0
142,43937375.142822415
240,43937375.142822415
241,43937375.142822415
2,9, 1, 9, 0,12, 0.00,60.00,Monday
93,0.0
142,30586077.453089517
240,30586077.453089517
241,30586077.453089517
2,9, 1, 9, 0,13, 0.00,60.00,Monday
93,0.0
142,32757818.398423128
240,32757818.398423128
241,32757818.398423128
2,9, 1, 9, 0,14, 0.00,60.00,Monday
93,0.0
142,30038618.501343388
240,30038618.501343388
241,30038618.501343388
2,9, 1, 9, 0,15, 0.00,60.00,Monday
93,0.0
142,22721152.963860307
240,22721152.963860307
241,22721152.963860307
2,9, 1, 9, 0,16, 0.00,60.00,Monday
93,0.0
142,14634318.478776162
240,14634318.478776162
241,14634318.478776162
2,9, 1, 9, 0,17, 0.00,60.00,Monday
93,0.0
142,3637837.1371826977
240,3637837.1371826977
241,3637837.1371826977
2,9, 1, 9, 0,18, 0.00,60.00,Monday
93,0.0
142,0.0
240,0.0
241,0.0
2,9, 1, 9, 0,19, 0.00,60.00,Monday
93,0.0
142,0.0
240,0.0
241,0.0
2,9, 1, 9, 0,20, 0.00,60.00,Monday
93,0.0
142,0.0
240,0.0
241,0.0
2,9, 1, 9, 0,21, 0.00,60.00,Monday
93,0.0
142,0.0
240,0.0
241,0.0
2,9, 1, 9, 0,22, 0.00,60.00,Monday
93,0.0
142,0.0
240,0.0
241,0.0
2,9, 1, 9, 0,23, 0.00,60.00,Monday
93,0.0
142,0.0
240,0.0
241,0.0
2,9, 1, 9, 0,24, 0.00,60.00,Monday
93,0.0
142,0.0
240,0.0
241,0.0
2,10, 1,10, 0, 1, 0.00,60.00,Tuesday
93,0.0
142,0.0
240,0.0
241,0.0
2,10, 1,10, 0, 2, 0.00,60.00,Tuesday
93,0.0
142,0.0
240,0.0
241,0.0
2,10, 1,10, 0, 3, 0.00,60.00,Tuesday
93,0.0
142,0.0
240,0.0
241,0.0
2,10, 1,10, 0, 4, 0.00,60.00,Tuesday
93,0.0
142,0.0
240,0.0
241,0.0
2,10, 1,10, 0, 5, 0.00,60.00,Tuesday
93,0.0
142,0.0
240,0.0
241,0.0
2,10, 1,10, 0, 6, 0.00,60.00,Tuesday
93,0.0
142,0.0
240,0.0
241,0.0
2,10, 1,10, 0, 7, 0.00,60.00,Tuesday
93,0.0
142,0.0
240,0.0
241,0.0
2,10, 1,10, 0, 8, 0.00,60.00,Tuesday
93,0.0
142,878250.3808489989
240,878250.3808489989
241,878250.3808489989
2,10, 1,10, 0, 9, 0.00,60.00,Tuesday
93,0.0
142,5653736.82671543
240,5653736.82671543
241,5653736.82671543
2,10, 1,10, 0,10, 0.00,60.00,Tuesday
93,0.0
142,11325770.536365215
240,11325770.536365215
241,11325770.536365215
2,10, 1,10, 0,11, 0.00,60.00,Tuesday
93,0.0
142,13667771.551962545
240,13667771.551962545
241,13667771.551962545
2,10, 1,10, 0,12, 0.00,60.00,Tuesday
93,0.0
142,28897983.889076117
240,28897983.889076117
241,28897983.889076117
2,10, 1,10, 0,13, 0.00,60.00,Tuesday
93,0.0
142,84656044.57589486
240,84656044.57589486
241,84656044.57589486
2,10, 1,10, 0,14, 0.00,60.00,Tuesday
93,0.0
142,103300337.98300242
240,103300337.98300242
241,103300337.98300242
2,10, 1,10, 0,15, 0.00,60.00,Tuesday
93,0.0
142,78738759.29638167
240,78738759.29638167
241,78738759.29638167
2,10, 1,10, 0,16, 0.00,60.00,Tuesday
93,0.0
142,40521695.71427523
240,40521695.71427523
241,40521695.71427523
2,10, 1,10, 0,17, 0.00,60.00,Tuesday
93,0.0
142,7286974.1396132335
240,7286974.1396132335
241,7286974.1396132335
2,10, 1,10, 0,18, 0.00,60.00,Tuesday
93,0.0
142,0.0
240,0.0
241,0.0
2,10, 1,10, 0,19, 0.00,60.00,Tuesday
93,0.0
142,0.0
240,0.0
241,0.0
2,10, 1,10, 0,20, 0.00,60.00,Tuesday
93,0.0
142,0.0
240,0.0
241,0.0
2,10, 1,10, 0,21, 0.00,60.00,Tuesday
93,0.0
142,0.0
240,0.0
241,0.0
2,10, 1,10, 0,22, 0.00,60.00,Tuesday
93,0.0
142,0.0
240,0.0
241,0.0
2,10, 1,10, 0,23, 0.00,60.00,Tuesday
93,0.0
142,0.0
240,0.0
241,0.0
2,10, 1,10, 0,24, 0.00,60.00,Tuesday
93,0.0
142,0.0
240,0.0
241,0.0
2,11, 1,11, 0, 1, 0.00,60.00,Wednesday
93,0.0
142,0.0
240,0.0
241,0.0
2,11, 1,11, 0, 2, 0.00,60.00,Wednesday
93,0.0
142,0.0
240,0.0
241,0.0
2,11, 1,11, 0, 3, 0.00,60.00,Wednesday
93,0.0
142,0.0
240,0.0
241,0.0
2,11, 1,11, 0, 4, 0.00,60.00,Wednesday
93,0.0
142,0.0
240,0.0
241,0.0
2,11, 1,11, 0, 5, 0.00,60.00,Wednesday
93,0.0
142,0.0
240,0.0
241,0.0
2,11, 1,11, 0, 6, 0.00,60.00,Wednesday
93,0.0
142,0.0
240,0.0
241,0.0
2,11, 1,11, 0, 7, 0.00,60.00,Wednesday
93,0.0
142,0.0
240,0.0
241,0.0
2,11, 1,11, 0, 8, 0.00,60.00,Wednesday
93,0.0
142,4000137.1759222443
240,4000137.1759222443
241,4000137.1759222443
2,11, 1,11, 0, 9, 0.00,60.00,Wednesday
93,0.0
142,39871678.60991839
240,39871678.60991839
241,39871678.60991839
2,11, 1,11, 0,10, 0.00,60.00,Wednesday
93,0.0
142,91609263.26684073
240,91609263.26684073
241,91609263.26684073
2,11, 1,11, 0,11, 0.00,60.00,Wednesday
93,0.0
142,133876250.41215767
240,133876250.41215767
241,133876250.41215767
2,11, 1,11, 0,12, 0.00,60.00,Wednesday
93,0.0
142,156583607.55719587
240,156583607.55719587
241,156583607.55719587
2,11, 1,11, 0,13, 0.00,60.00,Wednesday
93,0.0
142,153048553.59601548
240,153048553.59601548
241,153048553.59601548
2,11, 1,11, 0,14, 0.00,60.00,Wednesday
93,0.0
142,127142391.65614384
240,127142391.65614384
241,127142391.65614384
2,11, 1,11, 0,15, 0.00,60.00,Wednesday
93,0.0
142,88191895.77306058
240,88191895.77306058
241,88191895.77306058
2,11, 1,11, 0,16, 0.00,60.00,Wednesday
93,0.0
142,44202926.3818378
240,44202926.3818378
241,44202926.3818378
2,11, 1,11, 0,17, 0.00,60.00,Wednesday
93,0.0
142,7737432.427055786
240,7737432.427055786
241,7737432.427055786
2,11, 1,11, 0,18, 0.00,60.00,Wednesday
93,0.0
142,0.0
240,0.0
241,0.0
2,11, 1,11, 0,19, 0.00,60.00,Wednesday
93,0.0
142,0.0
240,0.0
241,0.0
2,11, 1,11, 0,20, 0.00,60.00,Wednesday
93,0.0
142,0.0
240,0.0
241,0.0
2,11, 1,11, 0,21, 0.00,60.00,Wednesday
93,0.0
142,0.0
240,0.0
241,0.0
2,11, 1,11, 0,22, 0.00,60.00,Wednesday
93,0.0
142,0.0
240,0.0
241,0.0
2,11, 1,11, 0,23, 0.00,60.00,Wednesday
93,0.0
142,0.0
240,0.0
241,0.0
2,11, 1,11, 0,24, 0.00,60.00,Wednesday
93,0.0
142,0.0
240,0.0
241,0.0
2,12, 1,12, 0, 1, 0.00,60.00,Thursday
93,0.0
142,0.0
240,0.0
241,0.0
2,12, 1,12, 0, 2, 0.00,60.00,Thursday
93,0.0
142,0.0
240,0.0
241,0.0
2,12, 1,12, 0, 3, 0.00,60.00,Thursday
93,0.0
142,0.0
240,0.0
241,0.0
2,12, 1,12, 0, 4, 0.00,60.00,Thursday
93,0.0
142,0.0
240,0.0
241,0.0
2,12, 1,12, 0, 5, 0.00,60.00,Thursday
93,0.0
142,0.0
240,0.0
241,0.0
2,12, 1,12, 0, 6, 0.00,60.00,Thursday
93,0.0
142,0.0
240,0.0
241,0.0
2,12, 1,12, 0, 7, 0.00,60.00,Thursday
93,0.0
142,0.0
240,0.0
241,0.0
2,12, 1,12, 0, 8, 0.00,60.00,Thursday
93,0.0
142,2553174.217727884
240,2553174.217727884
241,2553174.217727884
2,12, 1,12, 0, 9, 0.00,60.00,Thursday
93,0.0
142,17689246.171175327
240,17689246.171175327
241,17689246.171175327
2,12, 1,12, 0,10, 0.00,60.00,Thursday
93,0.0
142,40240263.84689994
240,40240263.84689994
241,40240263.84689994
2,12, 1,12, 0,11, 0.00,60.00,Thursday
93,0.0
142,62002753.96507874
240,62002753.96507874
241,62002753.96507874
2,12, 1,12, 0,12, 0.00,60.00,Thursday
93,0.0
142,64363280.689821124
240,64363280.689821124
241,64363280.689821124
2,12, 1,12, 0,13, 0.00,60.00,Thursday
93,0.0
142,71244602.81892155
240,71244602.81892155
241,71244602.81892155
2,12, 1,12, 0,14, 0.00,60.00,Thursday
93,0.0
142,55652072.19268219
240,55652072.19268219
241,55652072.19268219
2,12, 1,12, 0,15, 0.00,60.00,Thursday
93,0.0
142,27095022.554643236
240,27095022.554643236
241,27095022.554643236
2,12, 1,12, 0,16, 0.00,60.00,Thursday
93,0.0
142,12101408.580105629
240,12101408.580105629
241,12101408.580105629
2,12, 1,12, 0,17, 0.00,60.00,Thursday
93,0.0
142,2950250.728703051
240,2950250.728703051
241,2950250.728703051
2,12, 1,12, 0,18, 0.00,60.00,Thursday
93,0.0
142,0.0
240,0.0
241,0.0
2,12, 1,12, 0,19, 0.00,60.00,Thursday
93,0.0
142,0.0
240,0.0
241,0.0
2,12, 1,12, 0,20, 0.00,60.00,Thursday
93,0.0
142,0.0
240,0.0
241,0.0
2,12, 1,12, 0,21, 0.00,60.00,Thursday
93,0.0
142,0.0
240,0.0
241,0.0
2,12, 1,12, 0,22, 0.00,60.00,Thursday
93,0.0
142,0.0
240,0.0
241,0.0
2,12, 1,12, 0,23, 0.00,60.00,Thursday
93,0.0
142,0.0
240,0.0
241,0.0
2,12, 1,12, 0,24, 0.00,60.00,Thursday
93,0.0
142,0.0
240,0.0
241,0.0
2,13, 1,13, 0, 1, 0.00,60.00,Friday
93,0.0
142,0.0
240,0.0
241,0.0
2,13, 1,13, 0, 2, 0.00,60.00,Friday
93,0.0
142,0.0
240,0.0
241,0.0
2,13, 1,13, 0, 3, 0.00,60.00,Friday
93,0.0
142,0.0
240,0.0
241,0.0
2,13, 1,13, 0, 4, 0.00,60.00,Friday
93,0.0
142,0.0
240,0.0
241,0.0
2,13, 1,13, 0, 5, 0.00,60.00,Friday
93,0.0
142,0.0
240,0.0
241,0.0
2,13, 1,13, 0, 6, 0.00,60.00,Friday
93,0.0
142,0.0
240,0.0
241,0.0
2,13, 1,13, 0, 7, 0.00,60.00,Friday
93,0.0
142,0.0
240,0.0
241,0.0
2,13, 1,13, 0, 8, 0.00,60.00,Friday
93,0.0
142,5534658.2090084255
240,5534658.2090084255
241,5534658.2090084255
2,13, 1,13, 0, 9, 0.00,60.00,Friday
93,0.0
142,39051886.89380531
240,39051886.89380531
241,39051886.89380531
2,13, 1,13, 0,10, 0.00,60.00,Friday
93,0.0
142,89186267.08493382
240,89186267.08493382
241,89186267.08493382
2,13, 1,13, 0,11, 0.00,60.00,Friday
93,0.0
142,132207822.79173079
240,132207822.79173079
241,132207822.79173079
2,13, 1,13, 0,12, 0.00,60.00,Friday
93,0.0
142,155547583.66407695
240,155547583.66407695
241,155547583.66407695
2,13, 1,13, 0,13, 0.00,60.00,Friday
93,0.0
142,152496116.75762248
240,152496116.75762248
241,152496116.75762248
2,13, 1,13, 0,14, 0.00,60.00,Friday
93,0.0
142,126690665.65521935
240,126690665.65521935
241,126690665.65521935
2,13, 1,13, 0,15, 0.00,60.00,Friday
93,0.0
142,87821093.43572982
240,87821093.43572982
241,87821093.43572982
2,13, 1,13, 0,16, 0.00,60.00,Friday
93,0.0
142,44359113.55767191
240,44359113.55767191
241,44359113.55767191
2,13, 1,13, 0,17, 0.00,60.00,Friday
93,0.0
142,8274916.288644811
240,8274916.288644811
241,8274916.288644811
2,13, 1,13, 0,18, 0.00,60.00,Friday
93,0.0
142,0.0
240,0.0
241,0.0
2,13, 1,13, 0,19, 0.00,60.00,Friday
93,0.0
142,0.0
240,0.0
241,0.0
2,13, 1,13, 0,20, 0.00,60.00,Friday
93,0.0
142,0.0
240,0.0
241,0.0
2,13, 1,13, 0,21, 0.00,60.00,Friday
93,0.0
142,0.0
240,0.0
241,0.0
2,13, 1,13, 0,22, 0.00,60.00,Friday
93,0.0
142,0.0
240,0.0
241,0.0
2,13, 1,13, 0,23, 0.00,60.00,Friday
93,0.0
142,0.0
240,0.0
241,0.0
2,13, 1,13, 0,24, 0.00,60.00,Friday
93,0.0
142,0.0
240,0.0
241,0.0
2,14, 1,14, 0, 1, 0.00,60.00,Saturday
93,0.0
142,0.0
240,0.0
241,0.0
2,14, 1,14, 0, 2, 0.00,60.00,Saturday
93,0.0
142,0.0
240,0.0
241,0.0
2,14, 1,14, 0, 3, 0.00,60.00,Saturday
93,0.0
142,0.0
240,0.0
241,0.0
2,14, 1,14, 0, 4, 0.00,60.00,Saturday
93,0.0
142,0.0
240,0.0
241,0.0
2,14, 1,14, 0, 5, 0.00,60.00,Saturday
93,0.0
142,0.0
240,0.0
241,0.0
2,14, 1,14, 0, 6, 0.00,60.00,Saturday
93,0.0
142,0.0
240,0.0
241,0.0
2,14, 1,14, 0, 7, 0.00,60.00,Saturday
93,0.0
142,0.0
240,0.0
241,0.0
2,14, 1,14, 0, 8, 0.00,60.00,Saturday
93,0.0
142,3435736.775379407
240,3435736.775379407
241,3435736.775379407
2,14, 1,14, 0, 9, 0.00,60.00,Saturday
93,0.0
142,20125067.242602102
240,20125067.242602102
241,20125067.242602102
2,14, 1,14, 0,10, 0.00,60.00,Saturday
93,0.0
142,44717867.91702911
240,44717867.91702911
241,44717867.91702911
2,14, 1,14, 0,11, 0.00,60.00,Saturday
93,0.0
142,62025711.87053052
240,62025711.87053052
241,62025711.87053052
2,14, 1,14, 0,12, 0.00,60.00,Saturday
93,0.0
142,60750840.27951186
240,60750840.27951186
241,60750840.27951186
2,14, 1,14, 0,13, 0.00,60.00,Saturday
93,0.0
142,80376099.62621698
240,80376099.62621698
241,80376099.62621698
2,14, 1,14, 0,14, 0.00,60.00,Saturday
93,0.0
142,86365395.82783926
240,86365395.82783926
241,86365395.82783926
2,14, 1,14, 0,15, 0.00,60.00,Saturday
93,0.0
142,65673728.09572713
240,65673728.09572713
241,65673728.09572713
2,14, 1,14, 0,16, 0.00,60.00,Saturday
93,0.0
142,39419551.7926
240,39419551.7926
241,39419551.7926
2,14, 1,14, 0,17, 0.00,60.00,Saturday
93,0.0
142,10851833.575755427
240,10851833.575755427
241,10851833.575755427
2,14, 1,14, 0,18, 0.00,60.00,Saturday
93,0.0
142,0.0
240,0.0
241,0.0
2,14, 1,14, 0,19, 0.00,60.00,Saturday
93,0.0
142,0.0
240,0.0
241,0.0
2,14, 1,14, 0,20, 0.00,60.00,Saturday
93,0.0
142,0.0
240,0.0
241,0.0
2,14, 1,14, 0,21, 0.00,60.00,Saturday
93,0.0
142,0.0
240,0.0
241,0.0
2,14, 1,14, 0,22, 0.00,60.00,Saturday
93,0.0
142,0.0
240,0.0
241,0.0
2,14, 1,14, 0,23, 0.00,60.00,Saturday
93,0.0
142,0.0
240,0.0
241,0.0
2,14, 1,14, 0,24, 0.00,60.00,Saturday
93,0.0
142,0.0
240,0.0
241,0.0
2,15, 1,15, 0, 1, 0.00,60.00,Sunday
93,0.0
142,0.0
240,0.0
241,0.0
2,15, 1,15, 0, 2, 0.00,60.00,Sunday
93,0.0
142,0.0
240,0.0
241,0.0
2,15, 1,15, 0, 3, 0.00,60.00,Sunday
93,0.0
142,0.0
240,0.0
241,0.0
2,15, 1,15, 0, 4, 0.00,60.00,Sunday
93,0.0
142,0.0
240,0.0
241,0.0
2,15, 1,15, 0, 5, 0.00,60.00,Sunday